10
angle=54.9997  Eenergy=-188.053623750
N      -0.518089     -1.137975     -1.904658
N      0.124169     -0.190083     -1.517557
C      -0.835147     -0.963759     -3.333863
C      0.114009     0.213317     -0.130198
H      -0.763398     -1.910055     -3.857867
H      -1.869414     -0.641429     -3.363472
H      -0.199579     -0.217322     -3.790507
H      1.121041     0.466119     0.176973
H      -0.482204     1.117315     -0.103465
H      -0.312259     -0.528558     0.539805
