10
angle=59.9997  Eenergy=-188.050733924
N      -0.521607     -1.169300     -1.905184
N      0.109261     -0.219786     -1.506257
C      -0.832821     -0.961819     -3.335729
C      0.112079     0.213440     -0.129708
H      -0.766526     -1.896735     -3.880630
H      -1.864328     -0.630577     -3.360654
H      -0.189368     -0.210149     -3.771235
H      1.121657     0.480074     0.155800
H      -0.489472     1.114039     -0.119404
H      -0.299745     -0.511616     0.568192
