10
angle=69.9997  Eenergy=-188.044749192
N      -0.555359     -1.225570     -1.905119
N      0.046668     -0.272757     -1.477179
C      -0.827840     -0.958594     -3.343786
C      0.109153     0.214577     -0.124383
H      -0.749187     -1.872193     -3.922581
H      -1.856556     -0.620477     -3.385961
H      -0.166564     -0.194599     -3.725038
H      1.131745     0.496299     0.089467
H      -0.494782     1.113239     -0.126450
H      -0.258149     -0.472353     0.636222
