10
angle=14.9997  Eenergy=-188.067900812
N      -0.635013     -0.910310     -1.900234
N      0.053889     0.026338     -1.558272
C      -0.849346     -0.975428     -3.337924
C      0.126804     0.216501     -0.119521
H      -0.593261     -1.969153     -3.687369
H      -1.908991     -0.827201     -3.513204
H      -0.274209     -0.226271     -3.867962
H      1.168582     0.273888     0.174477
H      -0.331797     1.173488     0.102436
H      -0.377529     -0.574280     0.422765
