10
angle=89.9997  Eenergy=-188.037238647
N      -0.860516     -1.173374     -1.882046
N      -0.256480     -0.250619     -1.404408
C      -0.843307     -0.943669     -3.365226
C      0.132705     0.209034     -0.103946
H      -0.377940     -1.802552     -3.837277
H      -1.869503     -0.890294     -3.713294
H      -0.307721     -0.036929     -3.593633
H      1.211090     0.292535     -0.128563
H      -0.279736     1.204288     -0.004671
H      -0.169465     -0.400849     0.748254
