10
angle=4.9997  Eenergy=-188.068865999
N      -0.682262     -0.866920     -1.898915
N      0.008384     0.069571     -1.559421
C      -0.851001     -0.976322     -3.338779
C      0.127370     0.217525     -0.118247
H      -0.525932     -1.963365     -3.647709
H      -1.909990     -0.895377     -3.556705
H      -0.298172     -0.212420     -3.871651
H      1.179910     0.206535     0.141336
H      -0.267614     1.190968     0.149860
H      -0.401565     -0.562623     0.415422
