10
angle=9.9997  Eenergy=-188.068505648
N      -0.658109     -0.887831     -1.899629
N      0.032027     0.048621     -1.559223
C      -0.850302     -0.976000     -3.338457
C      0.127233     0.217044     -0.118727
H      -0.560213     -1.967386     -3.667508
H      -1.910293     -0.860742     -3.535106
H      -0.285967     -0.219938     -3.870395
H      1.174795     0.240789     0.159214
H      -0.300760     1.182412     0.126959
H      -0.389282     -0.569396     0.418062
